 &FCI NORB=  14,NELEC=10,MS2=10,
  ORBSYM=1,1,1,1,1,1,1,1,1,1,1,1,1,1,
  ISYM=1,
  IGENERAL=1,
  ITGENERAL=1,
 &END
  4.7446024972264969  0.0000000000000000   1   1   1   1
 -0.4005569207152849  0.0000000000000000   1   1   1   3
 -0.2377912490981000  0.0000000000000000   1   1   1   7
  0.2131188180544516  0.0000000000000000   1   1   1  11
  4.7446024972264969  0.0000000000000000   1   1   2   2
 -0.4005569207152849  0.0000000000000000   1   1   2   4
 -0.2377912490981000  0.0000000000000000   1   1   2   8
  0.2131188180544516  0.0000000000000000   1   1   2  12
 -0.4005569207152849  0.0000000000000000   1   1   3   1
  0.9862427470679114  0.0000000000000000   1   1   3   3
  0.1555436904206530  0.0000000000000000   1   1   3   7
 -0.3133842944208916  0.0000000000000000   1   1   3  11
 -0.4005569207152849  0.0000000000000000   1   1   4   2
  0.9862427470679114  0.0000000000000000   1   1   4   4
  0.1555436904206530  0.0000000000000000   1   1   4   8
 -0.3133842944208916  0.0000000000000000   1   1   4  12
  0.8716273566211521  0.0000000000000000   1   1   5   5
  0.3392628342455845  0.0000000000000000   1   1   5  13
  0.8716273566211521  0.0000000000000000   1   1   6   6
  0.3392628342455845  0.0000000000000000   1   1   6  14
 -0.2377912490981000  0.0000000000000000   1   1   7   1
  0.1555436904206530  0.0000000000000000   1   1   7   3
  0.9695577065123645  0.0000000000000000   1   1   7   7
  0.2247261697128944  0.0000000000000000   1   1   7  11
 -0.2377912490981000  0.0000000000000000   1   1   8   2
  0.1555436904206530  0.0000000000000000   1   1   8   4
  0.9695577065123645  0.0000000000000000   1   1   8   8
  0.2247261697128944  0.0000000000000000   1   1   8  12
  1.1153374923942712  0.0000000000000000   1   1   9   9
  1.1153374923942712  0.0000000000000000   1   1  10  10
  0.2131188180544516  0.0000000000000000   1   1  11   1
 -0.3133842944208916  0.0000000000000000   1   1  11   3
  0.2247261697128944  0.0000000000000000   1   1  11   7
  0.8883884068790512  0.0000000000000000   1   1  11  11
  0.2131188180544516  0.0000000000000000   1   1  12   2
 -0.3133842944208916  0.0000000000000000   1   1  12   4
  0.2247261697128944  0.0000000000000000   1   1  12   8
  0.8883884068790512  0.0000000000000000   1   1  12  12
  0.3392628342455845  0.0000000000000000   1   1  13   5
  0.7915229497670654  0.0000000000000000   1   1  13  13
  0.3392628342455845  0.0000000000000000   1   1  14   6
  0.7915229497670654  0.0000000000000000   1   1  14  14
 -0.4005569207152850  0.0000000000000000   1   3   1   1
  0.0543879654747385  0.0000000000000000   1   3   1   3
  0.0279920550587108  0.0000000000000000   1   3   1   7
 -0.0331955426038507  0.0000000000000000   1   3   1  11
 -0.4005569207152850  0.0000000000000000   1   3   2   2
  0.0543879654747385  0.0000000000000000   1   3   2   4
  0.0279920550587108  0.0000000000000000   1   3   2   8
 -0.0331955426038507  0.0000000000000000   1   3   2  12
  0.0543879654747385  0.0000000000000000   1   3   3   1
 -0.0096577341445873  0.0000000000000000   1   3   3   3
 -0.0109596632030024  0.0000000000000000   1   3   3   7
  0.0043160413046891  0.0000000000000000   1   3   3  11
  0.0543879654747385  0.0000000000000000   1   3   4   2
 -0.0096577341445873  0.0000000000000000   1   3   4   4
 -0.0109596632030024  0.0000000000000000   1   3   4   8
  0.0043160413046891  0.0000000000000000   1   3   4  12
 -0.0049607387375708  0.0000000000000000   1   3   5   5
 -0.0079469786300027  0.0000000000000000   1   3   5  13
 -0.0049607387375708  0.0000000000000000   1   3   6   6
 -0.0079469786300027  0.0000000000000000   1   3   6  14
  0.0279920550587108  0.0000000000000000   1   3   7   1
 -0.0109596632030024  0.0000000000000000   1   3   7   3
 -0.0149443129409975  0.0000000000000000   1   3   7   7
 -0.0038019037128804  0.0000000000000000   1   3   7  11
  0.0279920550587108  0.0000000000000000   1   3   8   2
 -0.0109596632030024  0.0000000000000000   1   3   8   4
 -0.0149443129409975  0.0000000000000000   1   3   8   8
 -0.0038019037128804  0.0000000000000000   1   3   8  12
 -0.0112505771802662  0.0000000000000000   1   3   9   9
 -0.0112505771802662  0.0000000000000000   1   3  10  10
 -0.0331955426038507  0.0000000000000000   1   3  11   1
  0.0043160413046891  0.0000000000000000   1   3  11   3
 -0.0038019037128804  0.0000000000000000   1   3  11   7
 -0.0068873403824311  0.0000000000000000   1   3  11  11
 -0.0331955426038507  0.0000000000000000   1   3  12   2
  0.0043160413046891  0.0000000000000000   1   3  12   4
 -0.0038019037128804  0.0000000000000000   1   3  12   8
 -0.0068873403824311  0.0000000000000000   1   3  12  12
 -0.0079469786300027  0.0000000000000000   1   3  13   5
 -0.0064351733081313  0.0000000000000000   1   3  13  13
 -0.0079469786300027  0.0000000000000000   1   3  14   6
 -0.0064351733081313  0.0000000000000000   1   3  14  14
  0.0140209049969404  0.0000000000000000   1   5   1   5
  0.0151977411638709  0.0000000000000000   1   5   1  13
  0.0140209049969404  0.0000000000000000   1   5   2   6
  0.0151977411638709  0.0000000000000000   1   5   2  14
  0.0204837990352862  0.0000000000000000   1   5   3   5
  0.0123484177076431  0.0000000000000000   1   5   3  13
  0.0204837990352862  0.0000000000000000   1   5   4   6
  0.0123484177076431  0.0000000000000000   1   5   4  14
  0.0140209049969404  0.0000000000000000   1   5   5   1
  0.0204837990352862  0.0000000000000000   1   5   5   3
  0.0076245485695918  0.0000000000000000   1   5   5   7
 -0.0058246373580331  0.0000000000000000   1   5   5  11
  0.0140209049969404  0.0000000000000000   1   5   6   2
  0.0204837990352862  0.0000000000000000   1   5   6   4
  0.0076245485695918  0.0000000000000000   1   5   6   8
 -0.0058246373580331  0.0000000000000000   1   5   6  12
  0.0076245485695918  0.0000000000000000   1   5   7   5
  0.0124111277444724  0.0000000000000000   1   5   7  13
  0.0076245485695918  0.0000000000000000   1   5   8   6
  0.0124111277444724  0.0000000000000000   1   5   8  14
 -0.0058246373580331  0.0000000000000000   1   5  11   5
 -0.0079406993711192  0.0000000000000000   1   5  11  13
 -0.0058246373580331  0.0000000000000000   1   5  12   6
 -0.0079406993711192  0.0000000000000000   1   5  12  14
  0.0151977411638709  0.0000000000000000   1   5  13   1
  0.0123484177076431  0.0000000000000000   1   5  13   3
  0.0124111277444724  0.0000000000000000   1   5  13   7
 -0.0079406993711192  0.0000000000000000   1   5  13  11
  0.0151977411638709  0.0000000000000000   1   5  14   2
  0.0123484177076431  0.0000000000000000   1   5  14   4
  0.0124111277444724  0.0000000000000000   1   5  14   8
 -0.0079406993711192  0.0000000000000000   1   5  14  12
 -0.2377912490981000  0.0000000000000000   1   7   1   1
  0.0279920550587108  0.0000000000000000   1   7   1   3
  0.0310912805105286  0.0000000000000000   1   7   1   7
 -0.0021414496432452  0.0000000000000000   1   7   1  11
 -0.2377912490981000  0.0000000000000000   1   7   2   2
  0.0279920550587108  0.0000000000000000   1   7   2   4
  0.0310912805105286  0.0000000000000000   1   7   2   8
 -0.0021414496432452  0.0000000000000000   1   7   2  12
  0.0279920550587108  0.0000000000000000   1   7   3   1
 -0.0198413809113485  0.0000000000000000   1   7   3   3
  0.0116374353039775  0.0000000000000000   1   7   3   7
  0.0191991868127011  0.0000000000000000   1   7   3  11
  0.0279920550587108  0.0000000000000000   1   7   4   2
 -0.0198413809113485  0.0000000000000000   1   7   4   4
  0.0116374353039775  0.0000000000000000   1   7   4   8
  0.0191991868127011  0.0000000000000000   1   7   4  12
 -0.0078147588119300  0.0000000000000000   1   7   5   5
  0.0009730497518546  0.0000000000000000   1   7   5  13
 -0.0078147588119300  0.0000000000000000   1   7   6   6
  0.0009730497518546  0.0000000000000000   1   7   6  14
  0.0310912805105286  0.0000000000000000   1   7   7   1
  0.0116374353039775  0.0000000000000000   1   7   7   3
  0.0087754846778635  0.0000000000000000   1   7   7   7
  0.0037377252505767  0.0000000000000000   1   7   7  11
  0.0310912805105286  0.0000000000000000   1   7   8   2
  0.0116374353039775  0.0000000000000000   1   7   8   4
  0.0087754846778635  0.0000000000000000   1   7   8   8
  0.0037377252505767  0.0000000000000000   1   7   8  12
 -0.0066651413710071  0.0000000000000000   1   7   9   9
 -0.0066651413710071  0.0000000000000000   1   7  10  10
 -0.0021414496432452  0.0000000000000000   1   7  11   1
  0.0191991868127011  0.0000000000000000   1   7  11   3
  0.0037377252505767  0.0000000000000000   1   7  11   7
 -0.0209702635886526  0.0000000000000000   1   7  11  11
 -0.0021414496432452  0.0000000000000000   1   7  12   2
  0.0191991868127011  0.0000000000000000   1   7  12   4
  0.0037377252505767  0.0000000000000000   1   7  12   8
 -0.0209702635886526  0.0000000000000000   1   7  12  12
  0.0009730497518546  0.0000000000000000   1   7  13   5
 -0.0060602523019639  0.0000000000000000   1   7  13  13
  0.0009730497518546  0.0000000000000000   1   7  14   6
 -0.0060602523019639  0.0000000000000000   1   7  14  14
  0.0260409884525928  0.0000000000000000   1   9   1   9
  0.0260409884525928  0.0000000000000000   1   9   2  10
  0.0312289635761372  0.0000000000000000   1   9   3   9
  0.0312289635761372  0.0000000000000000   1   9   4  10
  0.0175116633243889  0.0000000000000000   1   9   7   9
  0.0175116633243889  0.0000000000000000   1   9   8  10
  0.0260409884525928  0.0000000000000000   1   9   9   1
  0.0312289635761372  0.0000000000000000   1   9   9   3
  0.0175116633243889  0.0000000000000000   1   9   9   7
 -0.0139093103324016  0.0000000000000000   1   9   9  11
  0.0260409884525928  0.0000000000000000   1   9  10   2
  0.0312289635761372  0.0000000000000000   1   9  10   4
  0.0175116633243889  0.0000000000000000   1   9  10   8
 -0.0139093103324016  0.0000000000000000   1   9  10  12
 -0.0139093103324016  0.0000000000000000   1   9  11   9
 -0.0139093103324016  0.0000000000000000   1   9  12  10
  0.2131188180544515  0.0000000000000000   1  11   1   1
 -0.0331955426038507  0.0000000000000000   1  11   1   3
 -0.0021414496432452  0.0000000000000000   1  11   1   7
  0.0337096482623588  0.0000000000000000   1  11   1  11
  0.2131188180544515  0.0000000000000000   1  11   2   2
 -0.0331955426038507  0.0000000000000000   1  11   2   4
 -0.0021414496432452  0.0000000000000000   1  11   2   8
  0.0337096482623588  0.0000000000000000   1  11   2  12
 -0.0331955426038507  0.0000000000000000   1  11   3   1
 -0.0063869273091973  0.0000000000000000   1  11   3   3
  0.0208117744770597  0.0000000000000000   1  11   3   7
  0.0119377428666481  0.0000000000000000   1  11   3  11
 -0.0331955426038507  0.0000000000000000   1  11   4   2
 -0.0063869273091973  0.0000000000000000   1  11   4   4
  0.0208117744770597  0.0000000000000000   1  11   4   8
  0.0119377428666481  0.0000000000000000   1  11   4  12
 -0.0012696888652765  0.0000000000000000   1  11   5   5
  0.0086198902807215  0.0000000000000000   1  11   5  13
 -0.0012696888652765  0.0000000000000000   1  11   6   6
  0.0086198902807215  0.0000000000000000   1  11   6  14
 -0.0021414496432452  0.0000000000000000   1  11   7   1
  0.0208117744770597  0.0000000000000000   1  11   7   3
  0.0230425953416391  0.0000000000000000   1  11   7   7
  0.0071304156775443  0.0000000000000000   1  11   7  11
 -0.0021414496432452  0.0000000000000000   1  11   8   2
  0.0208117744770597  0.0000000000000000   1  11   8   4
  0.0230425953416391  0.0000000000000000   1  11   8   8
  0.0071304156775443  0.0000000000000000   1  11   8  12
  0.0054335735643496  0.0000000000000000   1  11   9   9
  0.0054335735643496  0.0000000000000000   1  11  10  10
  0.0337096482623588  0.0000000000000000   1  11  11   1
  0.0119377428666481  0.0000000000000000   1  11  11   3
  0.0071304156775443  0.0000000000000000   1  11  11   7
 -0.0109091791413418  0.0000000000000000   1  11  11  11
  0.0337096482623588  0.0000000000000000   1  11  12   2
  0.0119377428666481  0.0000000000000000   1  11  12   4
  0.0071304156775443  0.0000000000000000   1  11  12   8
 -0.0109091791413418  0.0000000000000000   1  11  12  12
  0.0086198902807215  0.0000000000000000   1  11  13   5
  0.0013328407898503  0.0000000000000000   1  11  13  13
  0.0086198902807215  0.0000000000000000   1  11  14   6
  0.0013328407898503  0.0000000000000000   1  11  14  14
  0.0151977411638709  0.0000000000000000   1  13   1   5
  0.0165214674411757  0.0000000000000000   1  13   1  13
  0.0151977411638709  0.0000000000000000   1  13   2   6
  0.0165214674411757  0.0000000000000000   1  13   2  14
  0.0205837830166047  0.0000000000000000   1  13   3   5
  0.0128290208274778  0.0000000000000000   1  13   3  13
  0.0205837830166047  0.0000000000000000   1  13   4   6
  0.0128290208274778  0.0000000000000000   1  13   4  14
  0.0151977411638709  0.0000000000000000   1  13   5   1
  0.0205837830166047  0.0000000000000000   1  13   5   3
  0.0083685974346285  0.0000000000000000   1  13   5   7
 -0.0056546627020633  0.0000000000000000   1  13   5  11
  0.0151977411638709  0.0000000000000000   1  13   6   2
  0.0205837830166047  0.0000000000000000   1  13   6   4
  0.0083685974346285  0.0000000000000000   1  13   6   8
 -0.0056546627020633  0.0000000000000000   1  13   6  12
  0.0083685974346285  0.0000000000000000   1  13   7   5
  0.0130780643580208  0.0000000000000000   1  13   7  13
  0.0083685974346285  0.0000000000000000   1  13   8   6
  0.0130780643580208  0.0000000000000000   1  13   8  14
 -0.0056546627020633  0.0000000000000000   1  13  11   5
 -0.0079589221534016  0.0000000000000000   1  13  11  13
 -0.0056546627020633  0.0000000000000000   1  13  12   6
 -0.0079589221534016  0.0000000000000000   1  13  12  14
  0.0165214674411757  0.0000000000000000   1  13  13   1
  0.0128290208274778  0.0000000000000000   1  13  13   3
  0.0130780643580208  0.0000000000000000   1  13  13   7
 -0.0079589221534016  0.0000000000000000   1  13  13  11
  0.0165214674411757  0.0000000000000000   1  13  14   2
  0.0128290208274778  0.0000000000000000   1  13  14   4
  0.0130780643580208  0.0000000000000000   1  13  14   8
 -0.0079589221534016  0.0000000000000000   1  13  14  12
  4.7446024972264969  0.0000000000000000   2   2   1   1
 -0.4005569207152849  0.0000000000000000   2   2   1   3
 -0.2377912490981000  0.0000000000000000   2   2   1   7
  0.2131188180544516  0.0000000000000000   2   2   1  11
  4.7446024972264969  0.0000000000000000   2   2   2   2
 -0.4005569207152849  0.0000000000000000   2   2   2   4
 -0.2377912490981000  0.0000000000000000   2   2   2   8
  0.2131188180544516  0.0000000000000000   2   2   2  12
 -0.4005569207152849  0.0000000000000000   2   2   3   1
  0.9862427470679114  0.0000000000000000   2   2   3   3
  0.1555436904206530  0.0000000000000000   2   2   3   7
 -0.3133842944208916  0.0000000000000000   2   2   3  11
 -0.4005569207152849  0.0000000000000000   2   2   4   2
  0.9862427470679114  0.0000000000000000   2   2   4   4
  0.1555436904206530  0.0000000000000000   2   2   4   8
 -0.3133842944208916  0.0000000000000000   2   2   4  12
  0.8716273566211521  0.0000000000000000   2   2   5   5
  0.3392628342455845  0.0000000000000000   2   2   5  13
  0.8716273566211521  0.0000000000000000   2   2   6   6
  0.3392628342455845  0.0000000000000000   2   2   6  14
 -0.2377912490981000  0.0000000000000000   2   2   7   1
  0.1555436904206530  0.0000000000000000   2   2   7   3
  0.9695577065123645  0.0000000000000000   2   2   7   7
  0.2247261697128944  0.0000000000000000   2   2   7  11
 -0.2377912490981000  0.0000000000000000   2   2   8   2
  0.1555436904206530  0.0000000000000000   2   2   8   4
  0.9695577065123645  0.0000000000000000   2   2   8   8
  0.2247261697128944  0.0000000000000000   2   2   8  12
  1.1153374923942712  0.0000000000000000   2   2   9   9
  1.1153374923942712  0.0000000000000000   2   2  10  10
  0.2131188180544516  0.0000000000000000   2   2  11   1
 -0.3133842944208916  0.0000000000000000   2   2  11   3
  0.2247261697128944  0.0000000000000000   2   2  11   7
  0.8883884068790512  0.0000000000000000   2   2  11  11
  0.2131188180544516  0.0000000000000000   2   2  12   2
 -0.3133842944208916  0.0000000000000000   2   2  12   4
  0.2247261697128944  0.0000000000000000   2   2  12   8
  0.8883884068790512  0.0000000000000000   2   2  12  12
  0.3392628342455845  0.0000000000000000   2   2  13   5
  0.7915229497670654  0.0000000000000000   2   2  13  13
  0.3392628342455845  0.0000000000000000   2   2  14   6
  0.7915229497670654  0.0000000000000000   2   2  14  14
 -0.4005569207152850  0.0000000000000000   2   4   1   1
  0.0543879654747385  0.0000000000000000   2   4   1   3
  0.0279920550587108  0.0000000000000000   2   4   1   7
 -0.0331955426038507  0.0000000000000000   2   4   1  11
 -0.4005569207152850  0.0000000000000000   2   4   2   2
  0.0543879654747385  0.0000000000000000   2   4   2   4
  0.0279920550587108  0.0000000000000000   2   4   2   8
 -0.0331955426038507  0.0000000000000000   2   4   2  12
  0.0543879654747385  0.0000000000000000   2   4   3   1
 -0.0096577341445873  0.0000000000000000   2   4   3   3
 -0.0109596632030024  0.0000000000000000   2   4   3   7
  0.0043160413046891  0.0000000000000000   2   4   3  11
  0.0543879654747385  0.0000000000000000   2   4   4   2
 -0.0096577341445873  0.0000000000000000   2   4   4   4
 -0.0109596632030024  0.0000000000000000   2   4   4   8
  0.0043160413046891  0.0000000000000000   2   4   4  12
 -0.0049607387375708  0.0000000000000000   2   4   5   5
 -0.0079469786300027  0.0000000000000000   2   4   5  13
 -0.0049607387375708  0.0000000000000000   2   4   6   6
 -0.0079469786300027  0.0000000000000000   2   4   6  14
  0.0279920550587108  0.0000000000000000   2   4   7   1
 -0.0109596632030024  0.0000000000000000   2   4   7   3
 -0.0149443129409975  0.0000000000000000   2   4   7   7
 -0.0038019037128804  0.0000000000000000   2   4   7  11
  0.0279920550587108  0.0000000000000000   2   4   8   2
 -0.0109596632030024  0.0000000000000000   2   4   8   4
 -0.0149443129409975  0.0000000000000000   2   4   8   8
 -0.0038019037128804  0.0000000000000000   2   4   8  12
 -0.0112505771802662  0.0000000000000000   2   4   9   9
 -0.0112505771802662  0.0000000000000000   2   4  10  10
 -0.0331955426038507  0.0000000000000000   2   4  11   1
  0.0043160413046891  0.0000000000000000   2   4  11   3
 -0.0038019037128804  0.0000000000000000   2   4  11   7
 -0.0068873403824311  0.0000000000000000   2   4  11  11
 -0.0331955426038507  0.0000000000000000   2   4  12   2
  0.0043160413046891  0.0000000000000000   2   4  12   4
 -0.0038019037128804  0.0000000000000000   2   4  12   8
 -0.0068873403824311  0.0000000000000000   2   4  12  12
 -0.0079469786300027  0.0000000000000000   2   4  13   5
 -0.0064351733081313  0.0000000000000000   2   4  13  13
 -0.0079469786300027  0.0000000000000000   2   4  14   6
 -0.0064351733081313  0.0000000000000000   2   4  14  14
  0.0140209049969404  0.0000000000000000   2   6   1   5
  0.0151977411638709  0.0000000000000000   2   6   1  13
  0.0140209049969404  0.0000000000000000   2   6   2   6
  0.0151977411638709  0.0000000000000000   2   6   2  14
  0.0204837990352862  0.0000000000000000   2   6   3   5
  0.0123484177076431  0.0000000000000000   2   6   3  13
  0.0204837990352862  0.0000000000000000   2   6   4   6
  0.0123484177076431  0.0000000000000000   2   6   4  14
  0.0140209049969404  0.0000000000000000   2   6   5   1
  0.0204837990352862  0.0000000000000000   2   6   5   3
  0.0076245485695918  0.0000000000000000   2   6   5   7
 -0.0058246373580331  0.0000000000000000   2   6   5  11
  0.0140209049969404  0.0000000000000000   2   6   6   2
  0.0204837990352862  0.0000000000000000   2   6   6   4
  0.0076245485695918  0.0000000000000000   2   6   6   8
 -0.0058246373580331  0.0000000000000000   2   6   6  12
  0.0076245485695918  0.0000000000000000   2   6   7   5
  0.0124111277444724  0.0000000000000000   2   6   7  13
  0.0076245485695918  0.0000000000000000   2   6   8   6
  0.0124111277444724  0.0000000000000000   2   6   8  14
 -0.0058246373580331  0.0000000000000000   2   6  11   5
 -0.0079406993711192  0.0000000000000000   2   6  11  13
 -0.0058246373580331  0.0000000000000000   2   6  12   6
 -0.0079406993711192  0.0000000000000000   2   6  12  14
  0.0151977411638709  0.0000000000000000   2   6  13   1
  0.0123484177076431  0.0000000000000000   2   6  13   3
  0.0124111277444724  0.0000000000000000   2   6  13   7
 -0.0079406993711192  0.0000000000000000   2   6  13  11
  0.0151977411638709  0.0000000000000000   2   6  14   2
  0.0123484177076431  0.0000000000000000   2   6  14   4
  0.0124111277444724  0.0000000000000000   2   6  14   8
 -0.0079406993711192  0.0000000000000000   2   6  14  12
 -0.2377912490981000  0.0000000000000000   2   8   1   1
  0.0279920550587108  0.0000000000000000   2   8   1   3
  0.0310912805105286  0.0000000000000000   2   8   1   7
 -0.0021414496432452  0.0000000000000000   2   8   1  11
 -0.2377912490981000  0.0000000000000000   2   8   2   2
  0.0279920550587108  0.0000000000000000   2   8   2   4
  0.0310912805105286  0.0000000000000000   2   8   2   8
 -0.0021414496432452  0.0000000000000000   2   8   2  12
  0.0279920550587108  0.0000000000000000   2   8   3   1
 -0.0198413809113485  0.0000000000000000   2   8   3   3
  0.0116374353039775  0.0000000000000000   2   8   3   7
  0.0191991868127011  0.0000000000000000   2   8   3  11
  0.0279920550587108  0.0000000000000000   2   8   4   2
 -0.0198413809113485  0.0000000000000000   2   8   4   4
  0.0116374353039775  0.0000000000000000   2   8   4   8
  0.0191991868127011  0.0000000000000000   2   8   4  12
 -0.0078147588119300  0.0000000000000000   2   8   5   5
  0.0009730497518546  0.0000000000000000   2   8   5  13
 -0.0078147588119300  0.0000000000000000   2   8   6   6
  0.0009730497518546  0.0000000000000000   2   8   6  14
  0.0310912805105286  0.0000000000000000   2   8   7   1
  0.0116374353039775  0.0000000000000000   2   8   7   3
  0.0087754846778635  0.0000000000000000   2   8   7   7
  0.0037377252505767  0.0000000000000000   2   8   7  11
  0.0310912805105286  0.0000000000000000   2   8   8   2
  0.0116374353039775  0.0000000000000000   2   8   8   4
  0.0087754846778635  0.0000000000000000   2   8   8   8
  0.0037377252505767  0.0000000000000000   2   8   8  12
 -0.0066651413710071  0.0000000000000000   2   8   9   9
 -0.0066651413710071  0.0000000000000000   2   8  10  10
 -0.0021414496432452  0.0000000000000000   2   8  11   1
  0.0191991868127011  0.0000000000000000   2   8  11   3
  0.0037377252505767  0.0000000000000000   2   8  11   7
 -0.0209702635886526  0.0000000000000000   2   8  11  11
 -0.0021414496432452  0.0000000000000000   2   8  12   2
  0.0191991868127011  0.0000000000000000   2   8  12   4
  0.0037377252505767  0.0000000000000000   2   8  12   8
 -0.0209702635886526  0.0000000000000000   2   8  12  12
  0.0009730497518546  0.0000000000000000   2   8  13   5
 -0.0060602523019639  0.0000000000000000   2   8  13  13
  0.0009730497518546  0.0000000000000000   2   8  14   6
 -0.0060602523019639  0.0000000000000000   2   8  14  14
  0.0260409884525928  0.0000000000000000   2  10   1   9
  0.0260409884525928  0.0000000000000000   2  10   2  10
  0.0312289635761372  0.0000000000000000   2  10   3   9
  0.0312289635761372  0.0000000000000000   2  10   4  10
  0.0175116633243889  0.0000000000000000   2  10   7   9
  0.0175116633243889  0.0000000000000000   2  10   8  10
  0.0260409884525928  0.0000000000000000   2  10   9   1
  0.0312289635761372  0.0000000000000000   2  10   9   3
  0.0175116633243889  0.0000000000000000   2  10   9   7
 -0.0139093103324016  0.0000000000000000   2  10   9  11
  0.0260409884525928  0.0000000000000000   2  10  10   2
  0.0312289635761372  0.0000000000000000   2  10  10   4
  0.0175116633243889  0.0000000000000000   2  10  10   8
 -0.0139093103324016  0.0000000000000000   2  10  10  12
 -0.0139093103324016  0.0000000000000000   2  10  11   9
 -0.0139093103324016  0.0000000000000000   2  10  12  10
  0.2131188180544515  0.0000000000000000   2  12   1   1
 -0.0331955426038507  0.0000000000000000   2  12   1   3
 -0.0021414496432452  0.0000000000000000   2  12   1   7
  0.0337096482623588  0.0000000000000000   2  12   1  11
  0.2131188180544515  0.0000000000000000   2  12   2   2
 -0.0331955426038507  0.0000000000000000   2  12   2   4
 -0.0021414496432452  0.0000000000000000   2  12   2   8
  0.0337096482623588  0.0000000000000000   2  12   2  12
 -0.0331955426038507  0.0000000000000000   2  12   3   1
 -0.0063869273091973  0.0000000000000000   2  12   3   3
  0.0208117744770597  0.0000000000000000   2  12   3   7
  0.0119377428666481  0.0000000000000000   2  12   3  11
 -0.0331955426038507  0.0000000000000000   2  12   4   2
 -0.0063869273091973  0.0000000000000000   2  12   4   4
  0.0208117744770597  0.0000000000000000   2  12   4   8
  0.0119377428666481  0.0000000000000000   2  12   4  12
 -0.0012696888652765  0.0000000000000000   2  12   5   5
  0.0086198902807215  0.0000000000000000   2  12   5  13
 -0.0012696888652765  0.0000000000000000   2  12   6   6
  0.0086198902807215  0.0000000000000000   2  12   6  14
 -0.0021414496432452  0.0000000000000000   2  12   7   1
  0.0208117744770597  0.0000000000000000   2  12   7   3
  0.0230425953416391  0.0000000000000000   2  12   7   7
  0.0071304156775443  0.0000000000000000   2  12   7  11
 -0.0021414496432452  0.0000000000000000   2  12   8   2
  0.0208117744770597  0.0000000000000000   2  12   8   4
  0.0230425953416391  0.0000000000000000   2  12   8   8
  0.0071304156775443  0.0000000000000000   2  12   8  12
  0.0054335735643496  0.0000000000000000   2  12   9   9
  0.0054335735643496  0.0000000000000000   2  12  10  10
  0.0337096482623588  0.0000000000000000   2  12  11   1
  0.0119377428666481  0.0000000000000000   2  12  11   3
  0.0071304156775443  0.0000000000000000   2  12  11   7
 -0.0109091791413418  0.0000000000000000   2  12  11  11
  0.0337096482623588  0.0000000000000000   2  12  12   2
  0.0119377428666481  0.0000000000000000   2  12  12   4
  0.0071304156775443  0.0000000000000000   2  12  12   8
 -0.0109091791413418  0.0000000000000000   2  12  12  12
  0.0086198902807215  0.0000000000000000   2  12  13   5
  0.0013328407898503  0.0000000000000000   2  12  13  13
  0.0086198902807215  0.0000000000000000   2  12  14   6
  0.0013328407898503  0.0000000000000000   2  12  14  14
  0.0151977411638709  0.0000000000000000   2  14   1   5
  0.0165214674411757  0.0000000000000000   2  14   1  13
  0.0151977411638709  0.0000000000000000   2  14   2   6
  0.0165214674411757  0.0000000000000000   2  14   2  14
  0.0205837830166047  0.0000000000000000   2  14   3   5
  0.0128290208274778  0.0000000000000000   2  14   3  13
  0.0205837830166047  0.0000000000000000   2  14   4   6
  0.0128290208274778  0.0000000000000000   2  14   4  14
  0.0151977411638709  0.0000000000000000   2  14   5   1
  0.0205837830166047  0.0000000000000000   2  14   5   3
  0.0083685974346285  0.0000000000000000   2  14   5   7
 -0.0056546627020633  0.0000000000000000   2  14   5  11
  0.0151977411638709  0.0000000000000000   2  14   6   2
  0.0205837830166047  0.0000000000000000   2  14   6   4
  0.0083685974346285  0.0000000000000000   2  14   6   8
 -0.0056546627020633  0.0000000000000000   2  14   6  12
  0.0083685974346285  0.0000000000000000   2  14   7   5
  0.0130780643580208  0.0000000000000000   2  14   7  13
  0.0083685974346285  0.0000000000000000   2  14   8   6
  0.0130780643580208  0.0000000000000000   2  14   8  14
 -0.0056546627020633  0.0000000000000000   2  14  11   5
 -0.0079589221534016  0.0000000000000000   2  14  11  13
 -0.0056546627020633  0.0000000000000000   2  14  12   6
 -0.0079589221534016  0.0000000000000000   2  14  12  14
  0.0165214674411757  0.0000000000000000   2  14  13   1
  0.0128290208274778  0.0000000000000000   2  14  13   3
  0.0130780643580208  0.0000000000000000   2  14  13   7
 -0.0079589221534016  0.0000000000000000   2  14  13  11
  0.0165214674411757  0.0000000000000000   2  14  14   2
  0.0128290208274778  0.0000000000000000   2  14  14   4
  0.0130780643580208  0.0000000000000000   2  14  14   8
 -0.0079589221534016  0.0000000000000000   2  14  14  12
 -0.4005569207152850  0.0000000000000000   3   1   1   1
  0.0543879654747385  0.0000000000000000   3   1   1   3
  0.0279920550587108  0.0000000000000000   3   1   1   7
 -0.0331955426038507  0.0000000000000000   3   1   1  11
 -0.4005569207152850  0.0000000000000000   3   1   2   2
  0.0543879654747385  0.0000000000000000   3   1   2   4
  0.0279920550587108  0.0000000000000000   3   1   2   8
 -0.0331955426038507  0.0000000000000000   3   1   2  12
  0.0543879654747385  0.0000000000000000   3   1   3   1
 -0.0096577341445873  0.0000000000000000   3   1   3   3
 -0.0109596632030024  0.0000000000000000   3   1   3   7
  0.0043160413046891  0.0000000000000000   3   1   3  11
  0.0543879654747385  0.0000000000000000   3   1   4   2
 -0.0096577341445873  0.0000000000000000   3   1   4   4
 -0.0109596632030024  0.0000000000000000   3   1   4   8
  0.0043160413046891  0.0000000000000000   3   1   4  12
 -0.0049607387375708  0.0000000000000000   3   1   5   5
 -0.0079469786300027  0.0000000000000000   3   1   5  13
 -0.0049607387375708  0.0000000000000000   3   1   6   6
 -0.0079469786300027  0.0000000000000000   3   1   6  14
  0.0279920550587108  0.0000000000000000   3   1   7   1
 -0.0109596632030024  0.0000000000000000   3   1   7   3
 -0.0149443129409975  0.0000000000000000   3   1   7   7
 -0.0038019037128804  0.0000000000000000   3   1   7  11
  0.0279920550587108  0.0000000000000000   3   1   8   2
 -0.0109596632030024  0.0000000000000000   3   1   8   4
 -0.0149443129409975  0.0000000000000000   3   1   8   8
 -0.0038019037128804  0.0000000000000000   3   1   8  12