 &FCI NORB=   7,NELEC=10,MS2=0,
  ORBSYM=1,1,1,1,1,1,1,
  ISYM=1,
  ITGENERAL=1,
 &END
  0.9941489259277895   1   1   0   0
 -0.2238075296425981   1   2   0   0
 -0.1332332238255518   1   4   0   0
  0.1178988037040550   1   6   0   0
  0.0266620851206757   2   1   0   0
  0.7850190999679104   2   2   0   0
  0.6817290289481355   2   4   0   0
 -0.8422859278762838   2   6   0   0
  0.0056086752180006   3   1   0   0
  0.1861419354585459   3   2   0   0
 -0.6528637338099618   3   4   0   0
 -0.9232659169162309   3   6   0   0
 -1.0000000000000000   4   5   0   0
 -0.6982802905127762   5   3   0   0
 -0.8746187913808834   5   7   0   0
 -0.0057136872111461   6   1   0   0
  0.1671740721698421   6   2   0   0
 -0.4639840913024638   6   3   0   0
 -0.3022208654273327   6   4   0   0
  0.7455480588347674   6   6   0   0
  1.0080750714662223   6   7   0   0
 -0.0057136872111461   7   1   0   0
  0.1671740721698421   7   2   0   0
  0.4639840913024638   7   3   0   0
 -0.3022208654273327   7   4   0   0
  0.7455480588347674   7   6   0   0
 -1.0080750714662223   7   7   0   0
  0.0000000000000000   0   0   0   0
