 &FCI NORB= 4,NELEC= 4,MS2= 0,
  ORBSYM=1,1,1,1,
  ISYM=1,
 /
 2.00 1 1 1 1
 2.00 2 2 2 2
 2.00 3 3 3 3
 2.00 4 4 4 4
 1.00 1 2 0 0
 1.00 2 3 0 0
 1.00 3 4 0 0
 0.00 0 0 0 0