 &FCI NORB=  28,NELEC=  14,MS2=   0,
  ORBSYM=1,1,1,1,1,1,1,5,5,5,5,5,5,5,2,2,2,6,6,6,3,3,3,7,7,7,4,8,
  ISYM=   1,
 &END
  2.2973149741661829   1   1   1   1
  0.0327414381369431   2   1   1   1
  0.0042180420780320   2   1   2   1
  0.6364106283537392   2   2   1   1
  0.0016334492691452   2   2   2   1
  0.5358891823504379   2   2   2   2
  0.0004188707440126   3   1   3   1
 -0.0013175107523906   3   2   3   1
  0.0172988760602551   3   2   3   2
  0.5950398435769563   3   3   1   1
 -0.0025580826628078   3   3   2   1
  0.5051763807450426   3   3   2   2
  0.5505648625966401   3   3   3   3
 -0.0108311426955216   4   1   1   1
 -0.0049123010012490   4   1   2   1
  0.0017448279640009   4   1   2   2
  0.0039210931991849   4   1   3   3
  0.0090327596979919   4   1   4   1
  0.0390801368178529   4   2   1   1
 -0.0008995167095688   4   2   2   1
  0.0486831522118204   4   2   2   2
  0.0364543515053617   4   2   3   3
  0.0031331952844621   4   2   4   1
  0.0178605348714004   4   2   4   2
 -0.0005329286753242   4   3   3   1
  0.0066535664619701   4   3   3   2
  0.0112091482060461   4   3   4   3
  0.4955299413386923   4   4   1   1
  0.0004318561707882   4   4   2   1
  0.4146973448491656   4   4   2   2
  0.4096051421619711   4   4   3   3
  0.0044341387429755   4   4   4   1
  0.0253689790718289   4   4   4   2
  0.3726933501897250   4   4   4   4
 -0.1634733402256728   5   1   1   1
 -0.0012916450481030   5   1   2   1
 -0.0022363221956695   5   1   2   2
 -0.0031026825413708   5   1   3   3
 -0.0032969051168247   5   1   4   1
 -0.0001671948432680   5   1   4   2
 -0.0050902943284132   5   1   4   4
  0.0235030905702971   5   1   5   1
  0.0116868580236272   5   2   1   1
  0.0033888380444369   5   2   2   1
  0.0168456985290700   5   2   2   2
 -0.0053383376144951   5   2   3   3
 -0.0022371140521436   5   2   4   1
  0.0053975803882239   5   2   4   2
  0.0037070903973869   5   2   4   4
  0.0019709666411792   5   2   5   1
  0.0166642735413803   5   2   5   2
  0.0004915208033866   5   3   3   1
 -0.0002097297975742   5   3   3   2
  0.0066002503766622   5   3   4   3
  0.0089129834935707   5   3   5   3
  0.0089047119806727   5   4   1   1
 -0.0026569516992044   5   4   2   1
  0.0205789122725838   5   4   2   2
  0.0425581602662788   5   4   3   3
  0.0050633437483820   5   4   4   1
  0.0001638399661069   5   4   4   2
  0.0173375035374510   5   4   4   4
 -0.0020407827332001   5   4   5   1
 -0.0119335761128493   5   4   5   2
  0.0350529071279085   5   4   5   4
  0.5716545785260075   5   5   1   1
  0.0037677369254850   5   5   2   1
  0.4426902924790107   5   5   2   2
  0.4329076919372832   5   5   3   3
 -0.0039593699335814   5   5   4   1
  0.0216671407480972   5   5   4   2
  0.3704901798310452   5   5   4   4
 -0.0027223815794438   5   5   5   1
  0.0103760333533259   5   5   5   2
  0.0109461873004425   5   5   5   4
  0.4064515578706209   5   5   5   5
 -0.1972486185919644   6   1   1   1
 -0.0080049467997700   6   1   2   1
 -0.0008193813955583   6   1   2   2
  0.0028381367229825   6   1   3   3
  0.0082116203157336   6   1   4   1
  0.0039073246945979   6   1   4   2
  0.0001953380521749   6   1   4   4
  0.0217835098840355   6   1   5   1
 -0.0018168710628219   6   1   5   2
  0.0054287706932285   6   1   5   4
 -0.0094387370448236   6   1   5   5
  0.0354560581484269   6   1   6   1
 -0.0167800755099174   6   2   1   1
  0.0009107580066757   6   2   2   1
  0.0138606845096584   6   2   2   2
 -0.0035019911405873   6   2   3   3
  0.0051176562541198   6   2   4   1
  0.0107259415600390   6   2   4   2
  0.0151117688527765   6   2   4   4
 -0.0003040090445258   6   2   5   1
  0.0077878190153159   6   2   5   2
  0.0098903255873795   6   2   5   4
 -0.0026519122821008   6   2   5   5
  0.0062031775782339   6   2   6   1
  0.0393926532164139   6   2   6   2
  0.0021685172466518   6   3   3   1
 -0.0145800240674358   6   3   3   2
 -0.0153321844974303   6   3   4   3
 -0.0059558097719304   6   3   5   3
  0.0377057536821372   6   3   6   3
  0.1025242384627033   6   4   1   1
 -0.0001198527066928   6   4   2   1
  0.0404670065585590   6   4   2   2
  0.0172349678750645   6   4   3   3
  0.0070209731068131   6   4   4   1
  0.0173215256814922   6   4   4   2
  0.0261214160207855   6   4   4   4
 -0.0058209318373675   6   4   5   1
  0.0075912008212158   6   4   5   2
 -0.0015694477768625   6   4   5   4
  0.0149414526913722   6   4   5   5
  0.0025592078034939   6   4   6   1
  0.0231969553375677   6   4   6   2
  0.0394950649361011   6   4   6   4
  0.1388607858723115   6   5   1   1
  0.0005639978725918   6   5   2   1
  0.0558296956175922   6   5   2   2
  0.0394497099056101   6   5   3   3
  0.0015011961942078   6   5   4   1
  0.0130584897640846   6   5   4   2
  0.0264907750100100   6   5   4   4
 -0.0049464701972981   6   5   5   1
  0.0053098749874875   6   5   5   2
 -0.0031538446215144   6   5   5   4
  0.0340727235526545   6   5   5   5
 -0.0039896142480249   6   5   6   1
  0.0052455408967587   6   5   6   2
  0.0237194939673637   6   5   6   4
  0.0246858508756946   6   5   6   5
  0.8266123894293725   6   6   1   1
 -0.0031928390460315   6   6   2   1
  0.5886720194662393   6   6   2   2
  0.5947318690923814   6   6   3   3
  0.0181215460987843   6   6   4   1
  0.0635476545960554   6   6   4   2
  0.4692975525002147   6   6   4   4
 -0.0179698901187997   6   6   5   1
 -0.0000062685314641   6   6   5   2
  0.0615276876667297   6   6   5   4
  0.4680358340070935   6   6   5   5
  0.0052232890693434   6   6   6   1
  0.0501222259548758   6   6   6   2
  0.0877381309253172   6   6   6   4
  0.0827787432223921   6   6   6   5
  0.8050686610653716   6   6   6   6
 -0.0724551506680239   7   1   1   1
  0.0041083533838574   7   1   2   1
 -0.0034388114720315   7   1   2   2
 -0.0066389236647924   7   1   3   3
 -0.0104314749235247   7   1   4   1
 -0.0034304269301049   7   1   4   2
 -0.0076305503411207   7   1   4   4
  0.0148847697545200   7   1   5   1
  0.0036711936040778   7   1   5   2
 -0.0068305429619394   7   1   5   4
  0.0026544439070261   7   1   5   5
  0.0027498652743664   7   1   6   1
 -0.0056987887197217   7   1   6   2
 -0.0106080461565260   7   1   6   4
 -0.0042895679082593   7   1   6   5
 -0.0301616743019477   7   1   6   6
  0.0176599219797253   7   1   7   1
 -0.0069214552583227   7   2   1   1
  0.0048971130881258   7   2   2   1
  0.0011820067941488   7   2   2   2
 -0.0332493705554452   7   2   3   3
 -0.0080738361685748   7   2   4   1
 -0.0057020813380600   7   2   4   2
 -0.0095528760069279   7   2   4   4
  0.0037896962597767   7   2   5   1
  0.0173778135865957   7   2   5   2
 -0.0230237246249135   7   2   5   4
  0.0090771563615200   7   2   5   5
 -0.0080552278119167   7   2   6   1
 -0.0113924404861166   7   2   6   2
 -0.0138451348645050   7   2   6   4
 -0.0048531415231830   7   2   6   5
 -0.0724599308422579   7   2   6   6
  0.0112473987036272   7   2   7   1
  0.0550563947394210   7   2   7   2
  0.0007114224576933   7   3   3   1
 -0.0100011871316916   7   3   3   2
 -0.0042949809642802   7   3   4   3
 -0.0004273954844662   7   3   5   3
  0.0072808615369914   7   3   6   3
  0.0119664862417387   7   3   7   3
 -0.1666560587188213   7   4   1   1
 -0.0005908976877981   7   4   2   1
 -0.0670534561835297   7   4   2   2
 -0.0706091293252928   7   4   3   3
 -0.0039631235512086   7   4   4   1
 -0.0100257948014285   7   4   4   2
 -0.0384277310608146   7   4   4   4
  0.0052635476930386   7   4   5   1
  0.0007856804828981   7   4   5   2
 -0.0213149783866778   7   4   5   4
 -0.0464669896027858   7   4   5   5
  0.0006810344550801   7   4   6   1
 -0.0120719902749154   7   4   6   2
 -0.0240825070475244   7   4   6   4
 -0.0231872722118754   7   4   6   5
 -0.1301203242980136   7   4   6   6
  0.0073861236043909   7   4   7   1
  0.0246484465661357   7   4   7   2
  0.0476478985068517   7   4   7   4
  0.1564172412069713   7   5   1   1
  0.0050883364327614   7   5   2   1
  0.0712961355857698   7   5   2   2
  0.0495874004579185   7   5   3   3
 -0.0079528398425525   7   5   4   1
  0.0040473104872427   7   5   4   2
  0.0256413149859414   7   5   4   4
  0.0013684880993703   7   5   5   1
  0.0136606881932919   7   5   5   2
 -0.0095824408816979   7   5   5   4
  0.0619266440735546   7   5   5   5
 -0.0106938550583870   7   5   6   1
 -0.0102256309546071   7   5   6   2
  0.0015779223324938   7   5   6   4
  0.0205790037628191   7   5   6   5
  0.0507321612556204   7   5   6   6
  0.0093602960952543   7   5   7   1
  0.0260436223754698   7   5   7   2
 -0.0194025211495854   7   5   7   4
  0.0544724612884726   7   5   7   5
 -0.0941816648367531   7   6   1   1
  0.0022003291314270   7   6   2   1
 -0.0463353211156609   7   6   2   2
 -0.0456864564129243   7   6   3   3
 -0.0115038276878377   7   6   4   1
 -0.0164522711035896   7   6   4   2
 -0.0388210589619389   7   6   4   4
  0.0065162032203588   7   6   5   1
  0.0019484869303072   7   6   5   2
 -0.0230683319787421   7   6   5   4
 -0.0146266528388972   7   6   5   5
 -0.0088224931948321   7   6   6   1
 -0.0359395183219646   7   6   6   2
 -0.0404200201635095   7   6   6   4
 -0.0202925722127293   7   6   6   5
 -0.1410971649196427   7   6   6   6
  0.0162587399739374   7   6   7   1
  0.0381783296915392   7   6   7   2
  0.0397389565046359   7   6   7   4
  0.0120592880889158   7   6   7   5
  0.0673856516499121   7   6   7   6
  0.6917934168884871   7   7   1   1
  0.0058705614575980   7   7   2   1
  0.5311354169744456   7   7   2   2
  0.4861150819405301   7   7   3   3
 -0.0024427810881754   7   7   4   1
  0.0455987505482483   7   7   4   2
  0.4130911538926517   7   7   4   4
 -0.0024473977761797   7   7   5   1
  0.0289132509963254   7   7   5   2
 -0.0014561674782105   7   7   5   4
  0.4564846550835061   7   7   5   5
 -0.0081999515760163   7   7   6   1
  0.0107718889622998   7   7   6   2
  0.0453957479928720   7   7   6   4
  0.0619532596995209   7   7   6   5
  0.5641899873699687   7   7   6   6
  0.0014328786766491   7   7   7   1
  0.0216334767026672   7   7   7   2
 -0.0642806962555650   7   7   7   4
  0.0922310851179793   7   7   7   5
 -0.0320784340464132   7   7   7   6
  0.5612438786202849   7   7   7   7
  0.0270006895547220   8   1   8   1
  0.0139392073624443   8   2   8   1
  0.0769075958806419   8   2   8   2
  0.0108732455319611   8   3   8   3
 -0.0010517027794434   8   4   8   1
 -0.0274719516286817   8   4   8   2
  0.0311408292200834   8   4   8   4
  0.0195988492809458   8   5   8   1
  0.0749183515839117   8   5   8   2
 -0.0310054034058135   8   5   8   4
  0.0880408407072827   8   5   8   5
  0.0110572475099589   8   6   8   1
 -0.0205002194894415   8   6   8   2
  0.0238393642647762   8   6   8   4
 -0.0128400661745205   8   6   8   5
  0.0518407672480158   8   6   8   6
  0.0135840860697737   8   7   8   1
  0.0795476061541210   8   7   8   2
 -0.0438155150109432   8   7   8   4
  0.0800510339704870   8   7   8   5
 -0.0331058761882205   8   7   8   6
  0.1171373204428626   8   7   8   7
  0.7735672192675038   8   8   1   1
  0.0062580626865147   8   8   2   1
  0.5365521397150561   8   8   2   2
  0.5020863180180613   8   8   3   3
 -0.0005955744005101   8   8   4   1
  0.0398189613396409   8   8   4   2
  0.4199600736722868   8   8   4   4
 -0.0073768319288316   8   8   5   1
  0.0255633130706044   8   8   5   2
  0.0094187284901357   8   8   5   4
  0.4644142177393903   8   8   5   5
 -0.0108964318170565   8   8   6   1
  0.0075210776201562   8   8   6   2
  0.0496351626652063   8   8   6   4
  0.0663434563028573   8   8   6   5
  0.6020928346158418   8   8   6   6
 -0.0034170040309261   8   8   7   1
  0.0133606966628399   8   8   7   2
 -0.0837319782625398   8   8   7   4
  0.0959354184175293   8   8   7   5
 -0.0492002041906897   8   8   7   6
  0.5610305841489105   8   8   7   7
  0.5852342989548418   8   8   8   8
  0.0234312813242134   9   1   8   1
  0.1593691842867498   9   1   8   2
 -0.1379901486428065   9   1   8   4
  0.1542952061489692   9   1   8   5
 -0.1395960305752723   9   1   8   6
  0.2488380813596633   9   1   8   7
  1.8257787591676915   9   1   9   1
  0.0088453447103575   9   2   8   1
  0.0045951791252122   9   2   8   2
 -0.0023616288717384   9   2   8   4
  0.0065909101107276   9   2   8   5
  0.0022212325878462   9   2   8   6
  0.0068290913589699   9   2   8   7
  0.0344104754378906   9   2   9   1
  0.0042077521578314   9   2   9   2
 -0.0007265265330047   9   3   8   3
  0.0004009698306502   9   3   9   3
 -0.0149479484192842   9   4   8   1
 -0.0075141558800699   9   4   8   2
  0.0004768199016018   9   4   8   4
 -0.0101914385358826   9   4   8   5
 -0.0054422361835910   9   4   8   6
 -0.0067955722976329   9   4   8   7
 -0.0218239133964870   9   4   9   1
 -0.0049019680614664   9   4   9   2
  0.0084661363671868   9   4   9   4
  0.0071295018489671   9   5   8   1
  0.0019103412987064   9   5   8   2
  0.0042455346586185   9   5   8   4
  0.0041542864304210   9   5   8   5
  0.0071636563335432   9   5   8   6
 -0.0010359825078389   9   5   8   7
 -0.1576752421630690   9   5   9   1
 -0.0013008091637167   9   5   9   2
 -0.0030200269871294   9   5   9   4
  0.0233872302859807   9   5   9   5
 -0.0120512084457115   9   6   8   1
 -0.0094635707014861   9   6   8   2
  0.0062959314392754   9   6   8   4
 -0.0111424846426917   9   6   8   5
  0.0005311439501178   9   6   8   6
 -0.0128668341712621   9   6   8   7
 -0.2068974004003105   9   6   9   1
 -0.0079876129753515   9   6   9   2
  0.0077494399169051   9   6   9   4
  0.0220380286819065   9   6   9   5
  0.0351082687403293   9   6   9   6
  0.0179787338342255   9   7   8   1
  0.0094319751881342   9   7   8   2
  0.0014749257314869   9   7   8   4
  0.0135683867579338   9   7   8   5
  0.0095649756144686   9   7   8   6
  0.0073090024133612   9   7   8   7
 -0.0564039677555974   9   7   9   1
  0.0040866561998303   9   7   9   2
 -0.0096376873883558   9   7   9   4
  0.0145034076219852   9   7   9   5
  0.0034118489896204   9   7   9   6
  0.0165484321545695   9   7   9   7
  0.0054188064603158   9   8   1   1
  0.0088682483748309   9   8   2   1
 -0.0021191687350023   9   8   2   2
 -0.0083279487359817   9   8   3   3
 -0.0158088764256530   9   8   4   1
 -0.0049118800890620   9   8   4   2
 -0.0073951904695578   9   8   4   4
  0.0075460897152968   9   8   5   1
  0.0057355680242689   9   8   5   2
 -0.0095161566574962   9   8   5   4
  0.0074587878327193   9   8   5   5
 -0.0127770420459988   9   8   6   1
 -0.0068573014576604   9   8   6   2
 -0.0113477668470977   9   8   6   4
 -0.0025745143118918   9   8   6   5
 -0.0322363604149985   9   8   6   6
  0.0191913608362281   9   8   7   1
  0.0155351441504249   9   8   7   2
  0.0067124502743897   9   8   7   4
  0.0149460986765361   9   8   7   5
  0.0196805456067621   9   8   7   6
  0.0066845141812731   9   8   7   7
  0.0027373889027084   9   8   8   8
  0.0283133472067186   9   8   9   8
  2.2981053602593056   9   9   1   1
  0.0327612799051741   9   9   2   1
  0.6364011800318885   9   9   2   2
  0.5950246354860731   9   9   3   3
 -0.0108514541719764   9   9   4   1
  0.0390555393046749   9   9   4   2
  0.4955178577803865   9   9   4   4
 -0.1635662029487180   9   9   5   1
  0.0116871976347838   9   9   5   2
  0.0088753756801433   9   9   5   4
  0.5716932112524593   9   9   5   5
 -0.1973809013476357   9   9   6   1
 -0.0168318894345838   9   9   6   2
  0.1024974373365417   9   9   6   4
  0.1388729519596482   9   9   6   5
  0.8265520496537386   9   9   6   6
 -0.0724795646833382   9   9   7   1
 -0.0068762382830746   9   9   7   2
 -0.1666472327325804   9   9   7   4
  0.1564679182146106   9   9   7   5
 -0.0941203579002395   9   9   7   6
  0.6918178128490314   9   9   7   7
  0.7736043698833237   9   9   8   8
  0.0054457920321762   9   9   9   8
  2.2988963142599208   9   9   9   9
 -0.0007648698097096  10   1   8   3
  0.0004402174926424  10   1   9   3
  0.0004842149736759  10   1  10   1
  0.0114720328238689  10   2   8   3
 -0.0015110889731359  10   2   9   3
 -0.0016730558177571  10   2  10   1
  0.0212248688839441  10   2  10   2
  0.0056282702865871  10   3   8   1
  0.0778156449136026  10   3   8   2
 -0.0264236913268214  10   3   8   4
  0.0762423005673148  10   3   8   5
 -0.0539419269831801  10   3   8   6
  0.0694987735631853  10   3   8   7
  0.1796450379240459  10   3   9   1
 -0.0006214719457351  10   3   9   2
 -0.0039906255362057  10   3   9   4
  0.0015261102972436  10   3   9   5
 -0.0041475988827801  10   3   9   6
  0.0052907843268805  10   3   9   7
  0.1573147611472810  10   3  10   3
  0.0055638578656383  10   4   8   3
 -0.0003781013493068  10   4   9   3
 -0.0004293867018477  10   4  10   1
  0.0079242441381391  10   4  10   2
  0.0054326193181343  10   4  10   4
  0.0032761972015890  10   5   8   3
  0.0007041152778594  10   5   9   3
  0.0007816272142147  10   5  10   1
 -0.0005383603275159  10   5  10   2
  0.0018546478244625  10   5  10   4
  0.0065668401701468  10   5  10   5
 -0.0131212552899133  10   6   8   3
  0.0017186323403329  10   6   9   3
  0.0018714118946763  10   6  10   1
 -0.0189577928492601  10   6  10   2
 -0.0079487908114292  10   6  10   4
  0.0000874411453178  10   6  10   5
  0.0214377964986308  10   6  10   6
 -0.0042507556984349  10   7   8   3
  0.0009279709795746  10   7   9   3
  0.0010638064769426  10   7  10   1
 -0.0125495211799780  10   7  10   2
 -0.0046002733162020  10   7  10   4
  0.0004296262657460  10   7  10   5
  0.0117916804085599  10   7  10   6
  0.0148713127078156  10   7  10   7
 -0.0008582979938121  10   8   3   1
  0.0101303574848401  10   8   3   2
  0.0089607203558864  10   8   4   3
  0.0060056846482798  10   8   5   3
 -0.0189069684360424  10   8   6   3
 -0.0034764348688167  10   8   7   3
  0.0132651388931093  10   8  10   8
  0.0004498945439470  10   9   3   1
 -0.0014369466368464  10   9   3   2
 -0.0005326425561987  10   9   4   3
  0.0005781744944842  10   9   5   3
  0.0021315859826943  10   9   6   3
  0.0008368320206947  10   9   7   3
 -0.0008178028031843  10   9  10   8
  0.0004863653035003  10   9  10   9
  0.5871209053508050  10  10   1   1
 -0.0020737482513250  10  10   2   1
  0.4991636280689900  10  10   2   2
  0.5378092536107830  10  10   3   3
  0.0016783198918812  10  10   4   1
  0.0363645239659323  10  10   4   2
  0.3999767220250616  10  10   4   4
 -0.0018321168727967  10  10   5   1
 -0.0025754813479250  10  10   5   2
  0.0319775162039869  10  10   5   4
  0.4314028783193247  10  10   5   5
  0.0008381799136611  10  10   6   1
 -0.0147295832013423  10  10   6   2
  0.0142584229549293  10  10   6   4
  0.0398053023752990  10  10   6   5
  0.5618557677838026  10  10   6   6
 -0.0033406855710273  10  10   7   1
 -0.0247533675121126  10  10   7   2
 -0.0635548254946091  10  10   7   4
  0.0546197628276636  10  10   7   5
 -0.0287946873625128  10  10   7   6
  0.4875833976876516  10  10   7   7
  0.4971617746274655  10  10   8   8
 -0.0043365944753516  10  10   9   8
  0.5871200408820776  10  10   9   9
  0.5363173762216947  10  10  10  10
  0.0073879517552670  11   1   8   1
  0.0057971330601646  11   1   8   2
 -0.0050169109354031  11   1   8   4
  0.0068019769332456  11   1   8   5
 -0.0010265908583111  11   1   8   6
  0.0087801324921810  11   1   8   7
  0.1698585357255823  11   1   9   1
  0.0061523470323781  11   1   9   2
 -0.0050345570591645  11   1   9   4
 -0.0193785905776766  11   1   9   5
 -0.0282368167020819  11   1   9   6
 -0.0047021126283573  11   1   9   7
  0.0013267642554701  11   1  10   3
  0.0232618866282639  11   1  11   1
  0.0014760672570026  11   2   8   1
  0.0237814353884469  11   2   8   2
 -0.0108150118602828  11   2   8   4
  0.0201673093138112  11   2   8   5
 -0.0148256171793339  11   2   8   6
  0.0227919500078701  11   2   8   7
  0.0775924271562547  11   2   9   1
 -0.0005758040485101  11   2   9   2
 -0.0014452326502546  11   2   9   4
 -0.0011214593584717  11   2   9   5
 -0.0031835246387288  11   2   9   6
  0.0009332691960363  11   2   9   7
  0.0344084742835037  11   2  10   3
  0.0017832741121809  11   2  11   1
  0.0153731018388812  11   2  11   2
  0.0011367775975340  11   3   8   3
 -0.0009682947006302  11   3   9   3
 -0.0010407479078413  11   3  10   1
  0.0031611819500048  11   3  10   2
 -0.0005097033399781  11   3  10   4
 -0.0058492782913237  11   3  10   5
 -0.0042122156639680  11   3  10   6
  0.0017361518489230  11   3  10   7
  0.0084532226725367  11   3  11   3
  0.0049468072214271  11   4   8   1
 -0.0063026761859641  11   4   8   2
  0.0106302026802844  11   4   8   4
 -0.0065527195058662  11   4   8   5
  0.0183627692332014  11   4   8   6
 -0.0087798890716863  11   4   8   7
 -0.0448399813611863  11   4   9   1
  0.0006765903240113  11   4   9   2
 -0.0026283337226738  11   4   9   4
  0.0030110226058163  11   4   9   5
 -0.0001705683228162  11   4   9   6
  0.0043232500894909  11   4   9   7
 -0.0162543887674944  11   4  10   3
 -0.0003182657181360  11   4  11   1
 -0.0049140154324254  11   4  11   2
  0.0122140979573323  11   4  11   4
 -0.0042189371341984  11   5   8   1
 -0.0425221089298266  11   5   8   2
  0.0204644710796242  11   5   8   4
 -0.0471803525764617  11   5   8   5
  0.0305986390590858  11   5   8   6
 -0.0467113521407208  11   5   8   7
 -0.1476312781150113  11   5   9   1
 -0.0009141688900401  11   5   9   2
  0.0028248081887300  11   5   9   4
  0.0025327771892441  11   5   9   5
  0.0072947036880730  11   5   9   6
 -0.0018564437132615  11   5   9   7
 -0.0711351076461958  11   5  10   3
 -0.0047101174808071  11   5  11   1
 -0.0187441403391151  11   5  11   2
  0.0102189833561813  11   5  11   4
  0.0463410644666751  11   5  11   5
  0.0060988678510234  11   6   8   1
 -0.0276624745759274  11   6   8   2
  0.0283179215428206  11   6   8   4
 -0.0181903438112875  11   6   8   5
  0.0459365276682797  11   6   8   6
 -0.0500935353627731  11   6   8   7
 -0.1801585259378067  11   6   9   1
  0.0009450402304736  11   6   9   2
 -0.0026261547312144  11   6   9   4
  0.0079777489786169  11   6   9   5
  0.0057050647410181  11   6   9   6
  0.0069708316793663  11   6   9   7
 -0.0472849705433973  11   6  10   3
 -0.0044284809741672  11   6  11   1
 -0.0180940004345429  11   6  11   2
  0.0134378777977183  11   6  11   4
  0.0284641909643908  11   6  11   5
  0.0522161234372343  11   6  11   6
 -0.0067126164796688  11   7   8   1
  0.0042005887869764  11   7   8   2
 -0.0052205039960144  11   7   8   4
  0.0024177490611239  11   7   8   5
 -0.0162985424445267  11   7   8   6
  0.0031694913523390  11   7   8   7
  0.0105662828497108  11   7   9   1
 -0.0012643100882871  11   7   9   2
  0.0037736886753870  11   7   9   4
 -0.0016517508390596  11   7   9   5
  0.0033692314311456  11   7   9   6
 -0.0047640701379233  11   7   9   7
  0.0156986718962503  11   7  10   3
 -0.0019608795029929  11   7  11   1
  0.0010292190840981  11   7  11   2
 -0.0067629757549778  11   7  11   4
 -0.0102156222870702  11   7  11   5
 -0.0081121231946098  11   7  11   6
  0.0128076990275482  11   7  11   7
  0.1127852525904902  11   8   1   1
 -0.0021788810688558  11   8   2   1
  0.0472329642306226  11   8   2   2
  0.0414408394490007  11   8   3   3
  0.0075792501594236  11   8   4   1
  0.0129453340471470  11   8   4   2
  0.0326742192099839  11   8   4   4
 -0.0066367566048288  11   8   5   1
 -0.0011111252861266  11   8   5   2
  0.0066522825331676  11   8   5   4
  0.0185403169405551  11   8   5   5
  0.0032305308676227  11   8   6   1
  0.0118823250583513  11   8   6   2
  0.0288791159396275  11   8   6   4
  0.0209491599711609  11   8   6   5
  0.1031170612158983  11   8   6   6
 -0.0118565743414026  11   8   7   1
 -0.0169285076190444  11   8   7   2
 -0.0240275862338826  11   8   7   4
  0.0014538279271168  11   8   7   5
 -0.0391859554213435  11   8   7   6
  0.0405462542557195  11   8   7   7
  0.0527235497134817  11   8   8   8
 -0.0137938966868626  11   8   9   8
  0.1127651531857524  11   8   9   9
  0.0334895921487007  11   8  10  10
  0.0352233518902464  11   8  11   8
  0.1663676451793103  11   9   1   1
  0.0061553229903320  11   9   2   1
  0.0012446762523770  11   9   2   2
 -0.0015974053145831  11   9   3   3
 -0.0051934110598089  11   9   4   1
 -0.0024511318915712  11   9   4   2
  0.0012747790403861  11   9   4   4
 -0.0193024673755647  11   9   5   1
  0.0013881197511308  11   9   5   2
 -0.0032399300452928  11   9   5   4
  0.0068829848595890  11   9   5   5
 -0.0283747711021073  11   9   6   1
 -0.0031451156589153  11   9   6   2
 -0.0000761256516206  11   9   6   4
  0.0035376842457089  11   9   6   5
  0.0005248573614751  11   9   6   6
 -0.0044772279257219  11   9   7   1
  0.0047926935747802  11   9   7   2
 -0.0018439457468337  11   9   7   4
  0.0069088170329144  11   9   7   5
  0.0039487025677800  11   9   7   6
  0.0065511704024311  11   9   7   7
  0.0094128853086980  11   9   8   8
  0.0076323389090149  11   9   9   8
  0.1664738953376681  11   9   9   9
 -0.0006800056626127  11   9  10  10
 -0.0008387605338875  11   9  11   8
  0.0233251192624799  11   9  11   9
 -0.0010183589259119  11  10   3   1
  0.0024527633432803  11  10   3   2
 -0.0015729691784015  11  10   4   3
 -0.0065822071116012  11  10   5   3
 -0.0042447649075422  11  10   6   3
  0.0025855484907641  11  10   7   3
 -0.0002756640254332  11  10  10   8
 -0.0010674942767862  11  10  10   9
  0.0099921342310057  11  10  11  10
  0.5814135361742657  11  11   1   1
 -0.0013208144691193  11  11   2   1
  0.4383914466877988  11  11   2   2
  0.4450425155508107  11  11   3   3
  0.0050698598101542  11  11   4   1
  0.0275742634829984  11  11   4   2
  0.3726070833254759  11  11   4   4
 -0.0084156461717983  11  11   5   1
 -0.0013726418363666  11  11   5   2
  0.0252927551689930  11  11   5   4
  0.3897008792545195  11  11   5   5
 -0.0023309646498824  11  11   6   1
  0.0024196351191399  11  11   6   2
  0.0306689451604693  11  11   6   4
  0.0388046070911146  11  11   6   5
  0.5150880424221627  11  11   6   6
 -0.0103167422791781  11  11   7   1
 -0.0214805205102304  11  11   7   2
 -0.0586806390112485  11  11   7   4
  0.0368399185406313  11  11   7   5
 -0.0443455795730744  11  11   7   6
  0.4348250375492679  11  11   7   7
  0.4518254553805606  11  11   8   8
 -0.0099704604208146  11  11   9   8
  0.5814201404089356  11  11   9   9
  0.4384111199758128  11  11  10  10
  0.0385683849428158  11  11  11   8
  0.0029377861635678  11  11  11   9
  0.4059531457372790  11  11  11  11
 -0.0277757874236063  12   1   8   1
 -0.0122631984841929  12   1   8   2
  0.0008496271934143  12   1   8   4
 -0.0165594777255975  12   1   8   5
 -0.0090244423710470  12   1   8   6
 -0.0106512758796325  12   1   8   7
 -0.0825194572447736  12   1   9   1
 -0.0099228256450842  12   1   9   2
  0.0160224833944335  12   1   9   4
  0.0006612455195909  12   1   9   5
  0.0218222806941629  12   1   9   6
 -0.0149735776311618  12   1   9   7
 -0.0066713238367770  12   1  10   3
 -0.0154334479117640  12   1  11   1
 -0.0029578663795109  12   1  11   2
 -0.0044510501002599  12   1  11   4
  0.0056008923306422  12   1  11   5
 -0.0033791599251345  12   1  11   6
  0.0069726784093448  12   1  11   7
  0.0325131296415042  12   1  12   1
  0.0070117712977581  12   2   8   1
  0.0729365416843897  12   2   8   2
 -0.0216771460718512  12   2   8   4
  0.0700355170316084  12   2   8   5
 -0.0207750073402205  12   2   8   6
  0.0672103126820052  12   2   8   7
  0.0808694042144685  12   2   9   1
  0.0012607167203745  12   2   9   2
 -0.0032944830990808  12   2   9   4
  0.0050923556513491  12   2   9   5
 -0.0002280423760502  12   2   9   6
  0.0069327530575389  12   2   9   7
  0.0853766047387439  12   2  10   3
 -0.0012649595582671  12   2  11   1
  0.0225603027055226  12   2  11   2
 -0.0086989587431376  12   2  11   4
 -0.0414661851288498  12   2  11   5
 -0.0223723965703068  12   2  11   6
  0.0112966695759383  12   2  11   7
 -0.0041648296197537  12   2  12   1
  0.0951649655129798  12   2  12   2
  0.0064470248607837  12   3   8   3
 -0.0005470833360238  12   3   9   3
 -0.0006343781085219  12   3  10   1
  0.0127148887154886  12   3  10   2
  0.0061171079787852  12   3  10   4
  0.0011504720376911  12   3  10   5
 -0.0104046404412346  12   3  10   6
 -0.0083252524539548  12   3  10   7
 -0.0003911820692009  12   3  11   3
  0.0092590374092173  12   3  12   3
 -0.0027187716484620  12   4   8   1
  0.0411496722096332  12   4   8   2
 -0.0279474460017348  12   4   8   4
  0.0364497274709547  12   4   8   5
 -0.0389970440639776  12   4   8   6
  0.0594597093972897  12   4   8   7
  0.1715994063084598  12   4   9   1
  0.0011043835673491  12   4   9   2
  0.0013987595290895  12   4   9   4
 -0.0058969589686258  12   4   9   5
 -0.0055312193945100  12   4   9   6
 -0.0041408346955474  12   4   9   7
  0.0568703597838630  12   4  10   3
  0.0045873777457075  12   4  11   1
  0.0162477998742086  12   4  11   2
 -0.0121999015949318  12   4  11   4
 -0.0344926544920649  12   4  11   5
 -0.0400758050742023  12   4  11   6
  0.0128372615455677  12   4  11   7
  0.0023619690115449  12   4  12   1
  0.0439246556947758  12   4  12   2
  0.0483493603331597  12   4  12   4
 -0.0024676692467208  12   5   8   1
  0.0083776504619926  12   5   8   2
 -0.0017601577629874  12   5   8   4
  0.0050891209656950  12   5   8   5
 -0.0042724359931498  12   5   8   6
  0.0059519426184835  12   5   8   7
 -0.0089674861474102  12   5   9   1
 -0.0003883526608348  12   5   9   2
  0.0016365818002508  12   5   9   4
 -0.0000984453542950  12   5   9   5
  0.0018903900672827  12   5   9   6
 -0.0016450754588343  12   5   9   7
  0.0057518537938198  12   5  10   3
 -0.0013230657420030  12   5  11   1
  0.0001484766542343  12   5  11   2
 -0.0037491410815549  12   5  11   4
 -0.0012651502332269  12   5  11   5
 -0.0023105220334927  12   5  11   6
  0.0046331002745156  12   5  11   7